ITEM: TIMESTEP
4000000
ITEM: NUMBER OF ATOMS
5032
ITEM: BOX BOUNDS pp pp ff
-1.5750970182000000e+01 1.6036605587000000e+01
-1.6275814454999999e+01 1.7531115324000002e+01
-3.3383603858000001e+01 3.3383603858000001e+01
ITEM: ATOMS id mol type x y z q 
4617 702 15 -13.936 -15.5829 -32.8836 -0.00624331 
4618 702 15 -15.164 -14.8739 -32.8836 -0.00251253 
4619 702 15 -15.164 -13.4559 -32.8836 -0.00288031 
4620 702 15 -13.936 -12.7469 -32.8836 -0.00688461 
4621 702 15 -11.4799 -15.5829 -32.8836 -0.00626063 
4622 702 15 -12.7079 -14.8739 -32.8836 -0.0079691 
4623 702 15 -12.7079 -13.4559 -32.8836 -0.00796497 
4624 702 15 -11.4799 -12.7469 -32.8836 -0.0062318 
4625 702 15 -9.02387 -15.5829 -32.8836 -0.00557309 
4626 702 15 -10.2519 -14.8739 -32.8836 -0.00558697 
4627 702 15 -10.2519 -13.4559 -32.8836 -0.00260647 
4628 702 15 -9.02387 -12.7469 -32.8836 0.00578055 
4669 702 15 -13.936 -11.3289 -32.8836 -0.00629583 
4670 702 15 -15.164 -10.6199 -32.8836 -0.00244099 
4671 702 15 -15.164 -9.20188 -32.8836 0.00815195 
4672 702 15 -13.936 -8.49288 -32.8836 0.0135066 
4673 702 15 -11.4799 -11.3289 -32.8836 -0.00687497 
4674 702 15 -12.7079 -10.6199 -32.8836 -0.00771603 
4675 702 15 -12.7079 -9.20188 -32.8836 0.00257679 
4676 702 15 -11.4799 -8.49288 -32.8836 0.00261227 
4677 702 15 -9.02387 -11.3289 -32.8836 0.00740252 
4678 702 15 -10.2519 -10.6199 -32.8836 -0.00174083 
4679 702 15 -10.2519 -9.20188 -32.8836 -0.00453479 
4680 702 15 -9.02387 -8.49288 -32.8836 -0.00602634 
1579 64 3 -14.7984 -13.3622 -29.4258 -0.13 
1578 64 1 -13.7378 -14.2092 -29.2726 0.15 
1580 64 3 -14.2562 -12.1214 -29.5566 -0.13 
1576 64 1 -12.9018 -12.269 -29.5702 0.15 
1577 64 2 -12.6171 -13.5073 -29.4301 -0.11 
1582 64 5 -11.626 -13.9388 -29.3134 0.21 
1585 64 6 -14.7167 -11.149 -29.6703 0.21 
1581 64 4 -11.9636 -11.1573 -29.6789 -0.17 
1587 64 7 -12.5688 -10.437 -30.3463 0.13 
1588 64 7 -11.7403 -10.7707 -28.6439 0.13 
1586 64 7 -10.9715 -11.3609 -30.037 0.13 
1088 44 7 -8.35323 -9.29961 -29.7984 0.13 
1086 44 7 -9.69129 -8.90747 -28.639 0.13 
3889 197 12 -14.5354 -8.43067 -29.5169 -0.72 
1081 44 4 -9.03534 -8.51615 -29.3955 -0.17 
1087 44 7 -9.73155 -8.40922 -30.2613 0.13 
4119 273 14 -8.61389 -11.8421 -29.3603 -0.72 
2043 82 10 -8.56423 -14.409 -27.6926 0.06 
4118 273 13 -8.44243 -11.8593 -28.1789 0.44 
2582 104 5 -11.3929 -10.7657 -26.0095 0.21 
2591 104 7 -12.6352 -8.72436 -26.7235 0.13 
4191 297 14 -11.5909 -15.9896 -26.2123 -0.72 
4190 297 13 -11.9234 -14.8616 -26.0624 0.44 
2039 82 8 -8.41811 -15.4141 -27.952 0.01 
4117 273 12 -8.20632 -11.9255 -26.5618 -0.72 
2040 82 7 -8.37847 -14.5868 -29.757 0.13 
2583 104 4 -11.8944 -8.10661 -26.2335 -0.17 
2044 82 10 -9.3476 -15.9565 -27.9719 0.06 
1589 64 8 -15.0989 -16.0905 -28.298 0.01 
2033 82 4 -7.80759 -15.3689 -29.3474 -0.17 
1591 64 7 -12.9981 -15.7295 -28.1313 0.13 
1583 64 4 -13.8174 -15.5911 -28.9174 -0.17 
1593 64 10 -15.347 -15.4819 -27.4461 0.06 
1590 64 7 -13.5739 -16.2207 -29.7741 0.13 
4189 297 12 -12.3786 -13.2212 -25.9163 -0.72 
2599 104 10 -14.3945 -8.73287 -25.1443 0.06 
2577 104 2 -10.9061 -10.1465 -25.2445 -0.11 
2578 104 1 -11.0706 -8.84094 -25.2584 0.15 
2045 82 11 -8.22508 -16.2757 -25.504 -0.18 
2050 82 10 -9.04205 -15.7084 -25.13 0.06 
2046 82 10 -6.84206 -15.02 -26.5915 0.06 
2031 82 4 -3.63725 -12.735 -29.5474 -0.17 
2026 82 1 -4.5332 -13.9016 -29.3634 0.15 
4629 702 15 -6.56783 -15.5829 -32.8836 -0.00696549 
4630 702 15 -7.79585 -14.8739 -32.8836 -0.00712265 
4631 702 15 -7.79585 -13.4559 -32.8836 -0.00064012 
4632 702 15 -6.56783 -12.7469 -32.8836 -0.00329211 
4633 702 15 -4.11178 -15.5829 -32.8836 -0.00581792 
4634 702 15 -5.3398 -14.8739 -32.8836 -0.00713545 
4635 702 15 -5.3398 -13.4559 -32.8836 -0.00857801 
4636 702 15 -4.11178 -12.7469 -32.8836 -0.00898623 
4637 702 15 -1.65573 -15.5829 -32.8836 -0.000207552 
4638 702 15 -2.88375 -14.8739 -32.8836 -0.0028351 
4639 702 15 -2.88375 -13.4559 -32.8836 -0.00386254 
4640 702 15 -1.65573 -12.7469 -32.8836 0.00211483 
4642 702 15 -0.427705 -14.8739 -32.8836 0.011171 
4643 702 15 -0.427705 -13.4559 -32.8836 0.0147922 
4681 702 15 -6.56783 -11.3289 -32.8836 0.00179553 
4682 702 15 -7.79585 -10.6199 -32.8836 0.0052033 
4683 702 15 -7.79585 -9.20188 -32.8836 -0.00225214 
4684 702 15 -6.56783 -8.49288 -32.8836 0.00132915 
4685 702 15 -4.11178 -11.3289 -32.8836 -0.00232134 
4686 702 15 -5.3398 -10.6199 -32.8836 0.00247486 
4687 702 15 -5.3398 -9.20188 -32.8836 0.00871793 
4688 702 15 -4.11178 -8.49288 -32.8836 0.0132759 
4689 702 15 -1.65573 -11.3289 -32.8836 -0.00321422 
4690 702 15 -2.88375 -10.6199 -32.8836 0.0013523 
4691 702 15 -2.88375 -9.20188 -32.8836 0.00879844 
4692 702 15 -1.65573 -8.49288 -32.8836 0.00173854 
4694 702 15 -0.427705 -10.6199 -32.8836 -0.00372961 
4695 702 15 -0.427705 -9.20188 -32.8836 -0.00383321 
2032 82 5 -6.46716 -13.0767 -29.6706 0.21 
2028 82 1 -6.35149 -15.0673 -29.4071 0.15 
2027 82 2 -5.86377 -13.9474 -29.6122 -0.11 
2030 82 3 -4.20582 -15.1745 -29.0546 -0.13 
2036 82 7 -2.79663 -13.0111 -30.0407 0.13 
2037 82 7 -4.27754 -11.9805 -30.0557 0.13 
2035 82 6 -3.29172 -15.5414 -28.6132 0.21 
2038 82 7 -3.39527 -12.2035 -28.6679 0.13 
4153 285 12 -3.93319 -8.88284 -29.3473 -0.72 
2732 110 5 -4.14779 -8.72177 -26.6374 0.21 
2884 116 6 -1.3103 -8.84456 -29.4384 0.21 
1085 44 6 -6.36371 -8.14923 -28.644 0.21 
2733 110 4 -2.08185 -10.8218 -26.5663 -0.17 
4078 260 12 -1.21392 -14.2467 -27.1085 -0.72 
2740 110 7 -1.83597 -11.5483 -27.3579 0.13 
2741 110 7 -1.74702 -9.81164 -26.9569 0.13 
2728 110 1 -3.42512 -10.7792 -26.0133 0.15 
2885 116 6 -0.398905 -11.3814 -29.7565 0.21 
2879 116 3 -0.268816 -9.3138 -29.3719 -0.13 
2029 82 3 -5.32482 -16.0074 -29.2072 -0.13 
4080 260 14 -0.404251 -13.9135 -29.7735 -0.72 
4079 260 13 -0.692513 -14.0484 -28.6554 0.44 
2042 82 9 -7.48407 -15.8809 -26.7884 -0.12 
2727 110 2 -4.24122 -9.70936 -25.9483 -0.11 
2736 110 7 -7.33569 -9.33814 -25.9489 0.13 
2738 110 7 -6.35392 -8.09329 -25.2591 0.13 
2731 110 4 -6.52866 -9.10939 -25.1849 -0.17 
2726 110 1 -5.38107 -10.0463 -25.3623 0.15 
2729 110 3 -4.06246 -11.7969 -25.4216 -0.13 
2734 110 6 -3.59703 -12.7572 -25.3208 0.21 
2739 110 8 -1.05864 -10.9609 -25.4156 0.01 
823 33 10 -3.0302 -15.1803 -25.1935 0.06 
4641 702 15 0.800318 -15.5829 -32.8836 0.00385922 
4644 702 15 0.800318 -12.7469 -32.8836 0.00238292 
4645 702 15 3.25637 -15.5829 -32.8836 -0.000162113 
4646 702 15 2.02834 -14.8739 -32.8836 0.00261851 
4647 702 15 2.02834 -13.4559 -32.8836 -0.00151359 
4648 702 15 3.25637 -12.7469 -32.8836 -0.00551877 
4649 702 15 5.71241 -15.5829 -32.8836 -0.000498997 
4650 702 15 4.48439 -14.8739 -32.8836 0.000251932 
4651 702 15 4.48439 -13.4559 -32.8836 7.71871e-05 
4652 702 15 5.71241 -12.7469 -32.8836 0.0052676 
4654 702 15 6.94044 -14.8739 -32.8836 -0.0067564 
4655 702 15 6.94044 -13.4559 -32.8836 -0.00196429 
4693 702 15 0.800318 -11.3289 -32.8836 -0.00564461 
4696 702 15 0.800318 -8.49288 -32.8836 -0.00543692 
4697 702 15 3.25637 -11.3289 -32.8836 -0.00689252 
4698 702 15 2.02834 -10.6199 -32.8836 -0.00778135 
4699 702 15 2.02834 -9.20188 -32.8836 -0.00661297 
4700 702 15 3.25637 -8.49288 -32.8836 -0.00568243 
4701 702 15 5.71241 -11.3289 -32.8836 0.00819128 
4702 702 15 4.48439 -10.6199 -32.8836 0.000322261 
4703 702 15 4.48439 -9.20188 -32.8836 -0.00175749 
4704 702 15 5.71241 -8.49288 -32.8836 -0.000168466 
4706 702 15 6.94044 -10.6199 -32.8836 0.00420351 
4707 702 15 6.94044 -9.20188 -32.8836 -0.00129534 
2887 116 7 2.60696 -12.1111 -28.6708 0.13 
2888 116 7 1.94756 -12.5934 -30.269 0.13 
2886 116 7 3.34192 -11.6765 -30.1789 0.13 
2881 116 4 2.37168 -11.7393 -29.7006 -0.17 
1294 52 10 2.24321 -14.8604 -27.7846 0.06 
1292 52 9 4.18315 -15.3658 -28.3117 -0.12 
1297 52 10 4.54308 -14.5167 -28.9363 0.06 
1296 52 10 5.04227 -15.689 -27.7773 0.06 
4113 271 14 4.3989 -10.2737 -27.4001 -0.72 
4112 271 13 5.10241 -10.8515 -28.1626 0.44 
2876 116 1 1.57873 -10.5375 -29.5918 0.15 
2877 116 2 1.92571 -9.34292 -29.1992 -0.11 
2882 116 5 3.01351 -9.05061 -29.04 0.21 
4111 271 12 6.24321 -11.5545 -29.168 -0.72 
3661 147 7 7.33886 -14.9308 -30.0714 0.13 
1289 52 8 3.14938 -15.1206 -27.2155 0.01 
2878 116 1 0.856818 -8.51848 -29.1035 0.15 
2994 120 10 7.49609 -8.98581 -28.5429 0.06 
2993 120 10 7.58969 -8.96028 -30.2997 0.06 
2989 120 8 7.74494 -8.36934 -29.4085 0.01 
2999 120 10 5.18928 -7.99219 -29.7517 0.06 
2746 110 10 0.421699 -10.5482 -26.8797 0.06 
2747 110 10 0.413529 -12.2253 -26.183 0.06 
3662 147 7 7.76201 -13.8167 -28.7603 0.13 
1290 52 7 3.49473 -13.0557 -26.2978 0.13 
1283 52 4 3.61055 -14.1554 -26.1279 -0.17 
2742 110 9 0.307442 -11.1651 -25.9855 -0.12 
2880 116 3 0.198657 -10.4905 -29.6237 -0.13 
1293 52 10 2.95617 -16.0401 -26.6809 0.06 
1291 52 7 4.69261 -14.2057 -25.9057 0.13 
2748 110 10 2.42631 -11.0093 -25.1877 0.06 
1282 52 5 0.975195 -15.2104 -25.5337 0.21 
132 6 5 5.92037 -9.70065 -25.5926 0.21 
128 6 1 7.95799 -8.86563 -25.6308 0.15 
127 6 2 6.63119 -8.90124 -25.6372 -0.11 
136 6 7 4.03828 -8.21276 -25.7481 0.13 
350 14 10 7.02805 -15.4207 -25.599 0.06 
3663 147 7 8.63183 -13.7525 -30.1917 0.13 
3656 147 4 8.16963 -14.5046 -29.4503 -0.17 
2986 120 7 14.0023 -11.2475 -29.9202 0.13 
4653 702 15 8.16846 -15.5829 -32.8836 -0.00960415 
4656 702 15 8.16846 -12.7469 -32.8836 -0.00630636 
4657 702 15 10.6245 -15.5829 -32.8836 -0.00280775 
4658 702 15 9.39649 -14.8739 -32.8836 -0.00994473 
4659 702 15 9.39649 -13.4559 -32.8836 -0.0109665 
4660 702 15 10.6245 -12.7469 -32.8836 -0.00873741 
4661 702 15 13.0806 -15.5829 -32.8836 0.0140236 
4662 702 15 11.8525 -14.8739 -32.8836 0.00777188 
4663 702 15 11.8525 -13.4559 -32.8836 0.0018957 
4664 702 15 13.0806 -12.7469 -32.8836 0.00287406 
4665 702 15 15.5366 -15.5829 -32.8836 0.00338337 
4666 702 15 14.3086 -14.8739 -32.8836 0.0156329 
4667 702 15 14.3086 -13.4559 -32.8836 0.00928126 
4668 702 15 15.5366 -12.7469 -32.8836 -0.00241806 
4705 702 15 8.16846 -11.3289 -32.8836 -0.0033339 
4708 702 15 8.16846 -8.49288 -32.8836 -0.00519558 
4709 702 15 10.6245 -11.3289 -32.8836 -0.0082302 
4710 702 15 9.39649 -10.6199 -32.8836 -0.00823812 
4711 702 15 9.39649 -9.20188 -32.8836 -0.00678632 
4712 702 15 10.6245 -8.49288 -32.8836 -0.00601058 
4713 702 15 13.0806 -11.3289 -32.8836 -0.0084978 
4714 702 15 11.8525 -10.6199 -32.8836 -0.00825786 
4715 702 15 11.8525 -9.20188 -32.8836 -0.00704 
4716 702 15 13.0806 -8.49288 -32.8836 -0.00714306 
4717 702 15 15.5366 -11.3289 -32.8836 -0.00577683 
4718 702 15 14.3086 -10.6199 -32.8836 -0.00780998 
4719 702 15 14.3086 -9.20188 -32.8836 -0.0064187 
4720 702 15 15.5366 -8.49288 -32.8836 0.00343104 
3660 147 6 10.3157 -14.3003 -27.467 0.21 
2985 120 6 11.3978 -12.3188 -29.7782 0.21 
2980 120 3 11.1501 -11.2674 -29.5637 -0.13 
2984 120 6 8.88185 -10.9188 -29.8204 0.21 
2979 120 3 9.98529 -10.6361 -29.653 -0.13 
4103 268 13 13.2857 -14.7968 -28.0468 0.44 
4102 268 12 13.5327 -14.4769 -29.6359 -0.72 
2976 120 1 12.1492 -10.3698 -29.2772 0.15 
2978 120 1 10.2943 -9.2942 -29.3977 0.15 
2977 120 2 11.5874 -9.19858 -29.1503 -0.11 
4104 268 14 13.0415 -15.0447 -26.9118 -0.72 
2981 120 4 13.591 -10.6065 -29.0928 -0.17 
2987 120 7 14.1694 -9.75398 -29.3502 0.13 
2988 120 7 13.7588 -11.0451 -28.0833 0.13 
2983 120 4 9.26478 -8.13137 -29.3933 -0.17 
2982 120 5 11.9708 -8.24921 -28.6998 0.21 
4024 242 12 12.3274 -8.58286 -26.3234 -0.72 
3651 147 1 9.12735 -15.4351 -28.8943 0.15 
140 6 7 9.37696 -10.2508 -26.4697 0.13 
146 6 10 9.06537 -12.6708 -26.2771 0.06 
3640 146 7 15.3597 -12.3514 -26.504 0.13 
1584 64 6 15.9524 -13.6807 -29.2966 0.21 
1594 64 10 15.8214 -16.0232 -28.9305 0.06 
3655 147 3 9.99178 -15.2374 -27.9089 -0.13 
3644 146 10 14.4995 -10.2638 -25.5379 0.06 
133 6 4 9.00145 -9.99882 -25.551 -0.17 
150 6 10 11.0227 -13.6887 -25.3371 0.06 
145 6 11 10.6818 -12.6965 -25.1417 -0.18 
149 6 10 11.2808 -12.0003 -25.7467 0.06 
142 6 9 9.21099 -12.5739 -25.2321 -0.12 
3634 146 6 14.6184 -15.2753 -25.2886 0.21 
3641 146 7 13.9872 -12.7327 -25.7452 0.13 
3633 146 4 14.9646 -12.3952 -25.495 -0.17 
1318 53 10 -15.7348 -2.0416 -25.9856 0.06 
3890 197 13 -13.0792 -7.63164 -29.3922 0.44 
3594 144 10 -13.7515 -1.76532 -28.7033 0.06 
3596 144 10 -11.1385 -2.51157 -30.1364 0.06 
3597 144 10 -11.3851 -2.34198 -28.5228 0.06 
4721 702 15 -13.936 -7.07488 -32.8836 0.0110378 
4722 702 15 -15.164 -6.36588 -32.8836 0.00399484 
4723 702 15 -15.164 -4.94788 -32.8836 -0.00165483 
4724 702 15 -13.936 -4.23888 -32.8836 -0.00223735 
4725 702 15 -11.4799 -7.07488 -32.8836 0.00862636 
4726 702 15 -12.7079 -6.36588 -32.8836 0.00891814 
4727 702 15 -12.7079 -4.94788 -32.8836 0.0015559 
4728 702 15 -11.4799 -4.23888 -32.8836 -0.00120035 
4729 702 15 -9.02387 -7.07488 -32.8836 -0.00594988 
4730 702 15 -10.2519 -6.36588 -32.8836 -0.000772247 
4731 702 15 -10.2519 -4.94788 -32.8836 -0.00304485 
4732 702 15 -9.02387 -4.23888 -32.8836 -0.0085692 
4773 702 15 -13.936 -2.82088 -32.8836 -0.00427768 
4774 702 15 -15.164 -2.11188 -32.8836 -0.00147078 
4775 702 15 -15.164 -0.693883 -32.8836 0.00501845 
4776 702 15 -13.936 0.0151173 -32.8836 0.00426733 
4777 702 15 -11.4799 -2.82088 -32.8836 -0.00243533 
4778 702 15 -12.7079 -2.11188 -32.8836 -0.00150765 
4779 702 15 -12.7079 -0.693883 -32.8836 0.000559983 
4780 702 15 -11.4799 0.0151173 -32.8836 0.00213627 
4781 702 15 -9.02387 -2.82088 -32.8836 -0.00665594 
4782 702 15 -10.2519 -2.11188 -32.8836 -0.00219924 
4783 702 15 -10.2519 -0.693883 -32.8836 0.0017697 
4784 702 15 -9.02387 0.0151173 -32.8836 0.00577977 
3577 144 2 -15.626 -5.28331 -28.8872 -0.11 
3578 144 1 -15.1403 -4.08908 -29.0469 0.15 
3582 144 5 -15.0622 -6.09814 -28.3846 0.21 
3583 144 4 -13.704 -3.78715 -29.0068 -0.17 
3591 144 7 -13.0333 -4.51791 -29.4899 0.13 
3891 197 14 -12.0376 -7.09728 -29.3653 -0.72 
3590 144 7 -13.3755 -3.83291 -27.9495 0.13 
3592 144 9 -11.7998 -1.96733 -29.444 -0.12 
3589 144 8 -13.312 -2.36933 -29.4232 0.01 
3593 144 10 -13.7427 -2.07148 -30.4355 0.06 
4188 296 14 -10.3442 -3.88534 -26.5289 -0.72 
1082 44 5 -9.61353 -5.7388 -29.4561 0.21 
2590 104 7 -11.2554 -7.74632 -27.0202 0.13 
4187 296 13 -9.5051 -4.67105 -26.2089 0.44 
1077 44 2 -8.67289 -6.01753 -29.2372 -0.11 
1076 44 1 -8.27741 -7.25928 -29.1066 0.15 
3595 144 11 -11.7221 -0.423501 -29.4577 -0.18 
3600 144 10 -10.7421 0.0198298 -29.448 0.06 
1091 44 7 -8.56968 -3.48764 -28.5612 0.13 
1090 44 7 -8.23706 -3.50442 -30.1338 0.13 
2005 81 3 -8.35527 0.471577 -26.6978 -0.13 
2594 104 10 -13.1408 -6.34276 -26.463 0.06 
2009 81 6 -8.95887 -1.63424 -26.5228 0.21 
2004 81 3 -8.55669 -0.6985 -26.1034 -0.13 
3868 190 12 -15.6324 0.432058 -28.7983 -0.72 
3599 144 10 -12.1815 0.0358103 -30.2436 0.06 
3598 144 10 -12.2687 0.0250249 -28.5525 0.06 
4186 296 12 -8.30715 -5.74791 -25.7985 -0.72 
2589 104 8 -12.5027 -6.76673 -25.7648 0.01 
2593 104 10 -11.8069 -6.01232 -25.5962 0.06 
2023 81 10 -12.25 -2.84562 -25.2865 0.06 
1323 53 10 -15.269 0.468238 -25.1436 0.06 
1814 73 8 -1.66217 -3.53613 -26.8417 0.01 
1095 44 11 -5.42483 -0.809922 -29.0394 -0.18 
1815 73 7 -3.3447 -4.2527 -27.8926 0.13 
1084 44 6 -5.38907 -5.6898 -28.6667 0.21 
4733 702 15 -6.56783 -7.07488 -32.8836 -0.000793778 
4734 702 15 -7.79585 -6.36588 -32.8836 -0.00539591 
4735 702 15 -7.79585 -4.94788 -32.8836 -0.00739149 
4736 702 15 -6.56783 -4.23888 -32.8836 -0.00577466 
4737 702 15 -4.11178 -7.07488 -32.8836 0.0100493 
4738 702 15 -5.3398 -6.36588 -32.8836 0.00312858 
4739 702 15 -5.3398 -4.94788 -32.8836 -0.000512954 
4740 702 15 -4.11178 -4.23888 -32.8836 0.00207561 
4741 702 15 -1.65573 -7.07488 -32.8836 0.00654301 
4742 702 15 -2.88375 -6.36588 -32.8836 0.0127241 
4743 702 15 -2.88375 -4.94788 -32.8836 0.00859218 
4744 702 15 -1.65573 -4.23888 -32.8836 0.00394417 
4746 702 15 -0.427705 -6.36588 -32.8836 -1.55951e-05 
4747 702 15 -0.427705 -4.94788 -32.8836 0.000946717 
4785 702 15 -6.56783 -2.82088 -32.8836 -0.00484319 
4786 702 15 -7.79585 -2.11188 -32.8836 -0.00496766 
4787 702 15 -7.79585 -0.693883 -32.8836 0.0023093 
4788 702 15 -6.56783 0.0151173 -32.8836 0.00501245 
4789 702 15 -4.11178 -2.82088 -32.8836 -0.00099909 
4790 702 15 -5.3398 -2.11188 -32.8836 -0.00184102 
4791 702 15 -5.3398 -0.693883 -32.8836 0.000668736 
4792 702 15 -4.11178 0.0151173 -32.8836 0.000617739 
4793 702 15 -1.65573 -2.82088 -32.8836 -0.000367362 
4794 702 15 -2.88375 -2.11188 -32.8836 -0.000538305 
4795 702 15 -2.88375 -0.693883 -32.8836 -0.0013157 
4796 702 15 -1.65573 0.0151173 -32.8836 -0.00400518 
4798 702 15 -0.427705 -2.11188 -32.8836 -0.00285922 
4799 702 15 -0.427705 -0.693883 -32.8836 -0.00544242 
1078 44 1 -7.64188 -5.25076 -29.1408 0.15 
1083 44 4 -7.75905 -3.82348 -29.1984 -0.17 
1080 44 3 -6.90948 -7.26949 -28.7674 -0.13 
1079 44 3 -6.44764 -5.98317 -28.8237 -0.13 
4154 285 13 -3.28813 -7.35979 -29.3493 0.44 
1093 44 10 -6.09331 -3.14137 -27.896 0.06 
1089 44 8 -6.4286 -2.98648 -28.9298 0.01 
1094 44 10 -5.68353 -3.30103 -29.6958 0.06 
1096 44 10 -7.35115 -1.08589 -28.3002 0.06 
1092 44 9 -6.76684 -1.47988 -29.1768 -0.12 
1097 44 10 -7.26885 -1.2224 -30.1215 0.06 
1816 73 7 -3.52761 -2.97924 -26.6251 0.13 
4155 285 14 -2.75849 -6.30178 -29.3816 -0.72 
1808 73 4 -3.10706 -3.95751 -26.8432 -0.17 
1098 44 10 -4.8788 -0.885627 -29.9504 0.06 
1099 44 10 -4.87175 -1.18624 -28.1867 0.06 
1825 73 10 -2.68391 -3.02721 -29.497 0.06 
1822 73 10 -1.84907 -1.57798 -27.5698 0.06 
1817 73 9 -1.36258 -2.49227 -27.8352 -0.12 
1803 73 1 -3.69852 -4.97879 -25.9864 0.15 
1809 73 6 -2.29596 -6.46562 -26.1473 0.21 
1820 73 11 -1.62369 -2.85561 -29.2972 -0.18 
4053 251 14 -3.31415 0.440573 -26.4055 -0.72 
1819 73 10 -1.18797 -4.4863 -26.9569 0.06 
1100 44 10 -5.61414 0.269585 -29.0535 0.06 
1824 73 10 -1.36381 -2.09725 -29.9776 0.06 
1823 73 10 -1.14562 -3.75152 -29.4762 0.06 
2890 116 7 0.0333418 -6.55497 -29.6236 0.13 
1821 73 10 -0.28672 -2.16429 -27.7286 0.06 
1804 73 3 -3.14176 -6.18655 -25.6665 -0.13 
1818 73 10 -1.41708 -3.47153 -25.7282 0.06 
1807 73 5 -5.29491 -3.91151 -25.0884 0.21 
1802 73 2 -4.69365 -4.73762 -25.1158 -0.11 
4052 251 13 -3.94432 -0.239892 -25.6193 0.44 
2883 116 4 0.779926 -7.01779 -28.9184 -0.17 
2896 116 10 1.06753 -4.79621 -27.5482 0.06 
2998 120 10 5.26803 -6.99115 -28.3102 0.06 
3000 120 10 5.17077 -6.14574 -29.9143 0.06 
2995 120 11 5.52617 -7.00299 -29.3769 -0.18 
4745 702 15 0.800318 -7.07488 -32.8836 -0.00515236 
4748 702 15 0.800318 -4.23888 -32.8836 -0.00273704 
4749 702 15 3.25637 -7.07488 -32.8836 -0.0052592 
4750 702 15 2.02834 -6.36588 -32.8836 -0.00546655 
4751 702 15 2.02834 -4.94788 -32.8836 -0.00402716 
4752 702 15 3.25637 -4.23888 -32.8836 -0.00390445 
4753 702 15 5.71241 -7.07488 -32.8836 -0.00154193 
4754 702 15 4.48439 -6.36588 -32.8836 -0.00346672 
4755 702 15 4.48439 -4.94788 -32.8836 -0.00383365 
4756 702 15 5.71241 -4.23888 -32.8836 -0.00376516 
4758 702 15 6.94044 -6.36588 -32.8836 -0.00144499 
4759 702 15 6.94044 -4.94788 -32.8836 -0.00214012 
4797 702 15 0.800318 -2.82088 -32.8836 -0.0029455 
4800 702 15 0.800318 0.0151173 -32.8836 -0.00725952 
4801 702 15 3.25637 -2.82088 -32.8836 -0.00374303 
4802 702 15 2.02834 -2.11188 -32.8836 -0.00399291 
4803 702 15 2.02834 -0.693883 -32.8836 -0.00533891 
4804 702 15 3.25637 0.0151173 -32.8836 -0.00245037 
4805 702 15 5.71241 -2.82088 -32.8836 -0.00628175 
4806 702 15 4.48439 -2.11188 -32.8836 -0.00541791 
4807 702 15 4.48439 -0.693883 -32.8836 -0.00297977 
4808 702 15 5.71241 0.0151173 -32.8836 -0.000103193 
4810 702 15 6.94044 -2.11188 -32.8836 -0.00719853 
4811 702 15 6.94044 -0.693883 -32.8836 -0.00410299 
2894 116 10 2.67109 -6.18289 -29.5898 0.06 
2889 116 8 2.09347 -6.23091 -28.7347 0.01 
2892 116 9 1.76176 -4.78785 -28.3749 -0.12 
2893 116 10 2.64167 -6.6513 -27.974 0.06 
2895 116 11 3.00558 -3.92043 -28.0611 -0.18 
2900 116 10 2.59328 -2.8754 -27.9125 0.06 
2899 116 10 3.59246 -4.33913 -27.3109 0.06 
2898 116 10 3.75583 -4.04663 -28.7879 0.06 
3412 137 7 6.00193 -1.28865 -28.2377 0.13 
2992 120 9 7.01295 -6.96089 -29.3658 -0.12 
3413 137 7 6.26748 -1.89428 -29.8938 0.13 
3406 137 4 6.70531 -1.78456 -28.8854 -0.17 
2798 112 10 3.62812 -0.460162 -29.9997 0.06 
2795 112 11 3.72469 0.142311 -29.096 -0.18 
2799 112 10 3.5405 -0.462358 -28.2467 0.06 
2800 112 10 4.71911 0.576505 -29.0383 0.06 
2997 120 10 7.30915 -6.38515 -28.4969 0.06 
2996 120 10 7.45792 -6.35994 -30.2345 0.06 
3401 137 1 7.96253 -1.02818 -28.8274 0.15 
3411 137 7 6.86141 -2.76423 -28.4384 0.13 
2793 112 10 1.1058 0.349918 -28.245 0.06 
2794 112 10 1.07953 -0.0508592 -29.9989 0.06 
2897 116 10 1.21011 -4.2913 -29.1458 0.06 
2891 116 7 0.152081 -7.07068 -28.0717 0.13 
3025 121 10 3.06769 -3.91047 -25.1544 0.06 
138 6 7 4.33506 -6.5299 -25.895 0.13 
3024 121 10 3.71612 -2.29038 -25.3477 0.06 
3993 231 14 6.2199 -3.44882 -25.427 -0.72 
3991 231 12 7.10261 -0.678088 -25.1852 -0.72 
3992 231 13 6.52783 -2.28135 -25.3444 0.44 
131 6 4 4.66982 -7.42095 -25.3658 -0.17 
126 6 1 6.09164 -7.65976 -25.6664 0.15 
130 6 3 7.13731 -6.82911 -25.7898 -0.13 
3021 121 10 1.14762 -2.74541 -25.0452 0.06 
135 6 6 7.02878 -5.69503 -25.8195 0.21 
3015 121 7 0.166894 -0.746716 -25.0603 0.13 
3402 137 2 8.151 0.285993 -28.6075 -0.11 
1314 53 8 15.0061 -1.72235 -26.0161 0.01 
2990 120 7 9.39934 -7.47369 -28.5036 0.13 
2991 120 7 9.58118 -7.37464 -30.1202 0.13 
4757 702 15 8.16846 -7.07488 -32.8836 -0.00334428 
4760 702 15 8.16846 -4.23888 -32.8836 -0.000840336 
4761 702 15 10.6245 -7.07488 -32.8836 0.00373009 
4762 702 15 9.39649 -6.36588 -32.8836 0.00371706 
4763 702 15 9.39649 -4.94788 -32.8836 0.00865009 
4764 702 15 10.6245 -4.23888 -32.8836 0.0163558 
4765 702 15 13.0806 -7.07488 -32.8836 -0.00300641 
4766 702 15 11.8525 -6.36588 -32.8836 0.0115735 
4767 702 15 11.8525 -4.94788 -32.8836 0.0208962 
4768 702 15 13.0806 -4.23888 -32.8836 0.00609608 
4769 702 15 15.5366 -7.07488 -32.8836 0.00170962 
4770 702 15 14.3086 -6.36588 -32.8836 -0.00298965 
4771 702 15 14.3086 -4.94788 -32.8836 -0.000146492 
4772 702 15 15.5366 -4.23888 -32.8836 -0.00228076 
4809 702 15 8.16846 -2.82088 -32.8836 -0.00386169 
4812 702 15 8.16846 0.0151173 -32.8836 -0.00240855 
4813 702 15 10.6245 -2.82088 -32.8836 0.00314398 
4814 702 15 9.39649 -2.11188 -32.8836 -0.00302632 
4815 702 15 9.39649 -0.693883 -32.8836 -0.00398155 
4816 702 15 10.6245 0.0151173 -32.8836 -0.00156631 
4817 702 15 13.0806 -2.82088 -32.8836 0.00708892 
4818 702 15 11.8525 -2.11188 -32.8836 0.00648689 
4819 702 15 11.8525 -0.693883 -32.8836 0.00716729 
4820 702 15 13.0806 0.0151173 -32.8836 0.0204423 
4821 702 15 15.5366 -2.82088 -32.8836 -0.000983489 
4822 702 15 14.3086 -2.11188 -32.8836 0.00713875 
4823 702 15 14.3086 -0.693883 -32.8836 0.0187127 
4824 702 15 15.5366 0.0151173 -32.8836 0.012588 
3928 210 12 9.58997 -4.88211 -27.6546 -0.72 
3929 210 13 10.5598 -5.03245 -28.9506 0.44 
3930 210 14 11.2673 -5.19308 -29.9199 -0.72 
3410 137 6 9.36998 -2.56841 -29.4387 0.21 
3405 137 3 9.12773 -1.52558 -29.2276 -0.13 
1304 53 3 11.8659 -1.98508 -26.5459 -0.13 
1310 53 6 9.63477 -1.4076 -26.4513 0.21 
1309 53 6 12.1951 -1.61973 -27.4705 0.21 
3409 137 6 11.0193 -0.478344 -29.5604 0.21 
3585 144 6 13.3635 -3.82527 -29.3815 0.21 
1305 53 3 10.5843 -1.88922 -26.1336 -0.13 
3870 190 14 13.6078 -0.244896 -29.8139 -0.72 
3587 144 7 13.6039 -6.75389 -28.1707 0.13 
3580 144 3 14.4204 -4.1019 -29.3312 -0.13 
3581 144 4 14.0426 -6.57725 -29.1621 -0.17 
3869 190 13 14.664 0.0806919 -29.3759 0.44 
3588 144 7 13.3352 -6.72695 -30.0098 0.13 
1319 53 10 14.8567 -1.27769 -26.9715 0.06 
1316 53 7 14.1028 -3.58261 -26.7657 0.13 
3404 137 3 9.98358 -0.480827 -29.295 -0.13 
3576 144 1 14.8957 -5.39481 -29.3125 0.15 
3586 144 7 14.5855 -7.56924 -29.3111 0.13 
3584 144 6 15.6979 -2.3019 -29.637 0.21 
3579 144 3 15.5106 -3.32364 -29.4007 -0.13 
1303 53 1 12.6738 -2.71389 -25.7109 0.15 
129 6 3 8.25119 -7.54355 -25.888 -0.13 
1315 53 7 14.2999 -3.62581 -25.0956 0.13 
1308 53 4 14.0747 -2.94073 -25.8894 -0.17 
1322 53 10 13.5544 -0.412778 -25.1034 0.06 
4025 242 13 12.8295 -7.06283 -25.7371 0.44 
134 6 6 9.26382 -7.21266 -25.9083 0.21 
4026 242 14 13.2966 -6.05947 -25.2426 -0.72 
1320 53 11 15.4011 0.59489 -25.2109 -0.18 
3630 146 3 -15.2757 -15.4551 -24.1848 -0.13 
3626 146 1 -14.427 -14.4844 -23.7174 0.15 
3627 146 2 -14.9201 -13.322 -24.1494 -0.11 
3631 146 4 -13.3008 -14.8105 -22.859 -0.17 
3785 162 13 -13.6505 -11.1721 -21.3973 0.44 
3786 162 14 -13.0514 -12.184 -21.5194 -0.72 
3784 162 12 -14.5927 -9.83379 -21.1737 -0.72 
4175 292 13 -12.0721 -15.7035 -18.882 0.44 
2852 115 2 -10.363 -11.0381 -19.9102 -0.11 
2851 115 1 -10.1757 -9.72376 -20.0374 0.15 
2576 104 1 -10.2545 -10.4696 -24.1468 0.15 
2872 115 10 -9.13064 -14.9083 -21.0314 0.06 
2581 104 4 -10.0726 -11.851 -23.5605 -0.17 
2853 115 1 -9.24848 -11.5532 -19.3368 0.15 
2864 115 8 -7.98159 -13.7606 -19.4749 0.01 
2867 115 9 -8.31067 -14.166 -20.9671 -0.12 
2854 115 3 -8.23277 -10.5504 -19.3679 -0.13 
2855 115 3 -8.83707 -9.4646 -19.8946 -0.13 
2857 115 5 -11.3453 -11.4966 -19.7313 0.21 
2858 115 4 -9.03591 -12.9303 -18.7895 -0.17 
2588 104 7 -9.97061 -12.5976 -24.3005 0.13 
3638 146 7 -12.9287 -15.7903 -22.9319 0.13 
3636 146 7 -12.5014 -14.1616 -23.0553 0.13 
2587 104 7 -10.8335 -12.215 -22.9203 0.13 
2871 115 10 -8.56204 -13.1741 -21.4311 0.06 
2580 104 3 -9.77383 -9.29906 -23.5911 -0.13 
3632 146 5 -14.3763 -12.4085 -23.9363 0.21 
2586 104 7 -9.09543 -11.9912 -23.1623 0.13 
2866 115 7 -9.96296 -13.5257 -18.9123 0.13 
2260 91 6 -14.7384 -14.1712 -19.5405 0.21 
2585 104 6 -9.16408 -9.38783 -22.7201 0.21 
2595 104 11 -14.5358 -7.84286 -24.5463 -0.18 
2598 104 10 -14.914 -8.19451 -23.6156 0.06 
2862 115 7 -12.1544 -8.86616 -19.833 0.13 
2860 115 6 -8.45439 -8.42014 -20.0166 0.21 
2856 115 4 -11.2321 -8.6764 -20.3028 -0.17 
2579 104 3 -10.2165 -8.24738 -24.3678 -0.13 
2861 115 7 -11.5073 -8.74642 -21.3238 0.13 
3637 146 7 -13.598 -14.6397 -21.8807 0.13 
4174 292 12 -12.6364 -14.3569 -18.0003 -0.72 
2865 115 7 -8.84147 -12.7391 -17.6975 0.13 
2610 105 6 -15.3152 -9.60502 -18.2353 0.21 
2605 105 3 -14.3554 -9.51257 -17.6699 -0.13 
2609 105 6 -13.7593 -11.4894 -17.6354 0.21 
2604 105 3 -13.641 -10.547 -17.237 -0.13 
2601 105 1 -13.7917 -8.40781 -17.1934 0.15 
25 1 10 -0.427705 -12.33 -19.7765 0.06 
19 1 10 -0.63464 -11.0609 -22.0277 0.06 
2737 110 7 -7.10069 -9.29865 -24.2881 0.13 
14 1 8 -0.555443 -10.244 -21.2998 0.01 
2869 115 10 -7.71861 -14.7088 -18.958 0.06 
1287 52 7 -0.707562 -15.9504 -23.2416 0.13 
2870 115 11 -7.01884 -14.803 -21.6644 -0.18 
2874 115 10 -6.59801 -15.6513 -21.0612 0.06 
2743 110 10 -1.11233 -10.1201 -24.7336 0.06 
2875 115 10 -6.14979 -14.0867 -21.6403 0.06 
2873 115 10 -7.17976 -15.3898 -22.5672 0.06 
2868 115 10 -6.99531 -13.2898 -19.5035 0.06 
2859 115 6 -7.19522 -10.8257 -19.056 0.21 
2730 110 3 -5.25383 -11.4156 -25.0107 -0.13 
2725 109 10 -2.23998 -13.5061 -21.1928 0.06 
2735 110 6 -6.05882 -11.8532 -24.4294 0.21 
2723 109 10 -3.70273 -13.6818 -22.022 0.06 
2720 109 11 -3.32957 -13.6954 -21.0011 -0.18 
2721 109 10 -4.13648 -11.6608 -20.4085 0.06 
2717 109 9 -4.04498 -12.6759 -20.1166 -0.12 
2722 109 10 -5.1575 -12.9852 -20.0575 0.06 
3996 232 14 -6.36901 -10.6322 -22.1824 -0.72 
1935 78 6 -4.10362 -8.98835 -19.3088 0.21 
2724 109 10 -3.44312 -14.7021 -20.6937 0.06 
2714 109 8 -3.64781 -12.6464 -18.6343 0.01 
2718 109 10 -2.64285 -12.1865 -18.643 0.06 
3995 232 13 -5.35105 -10.0133 -21.9909 0.44 
3994 232 12 -3.8888 -9.16523 -21.9127 -0.72 
2744 110 10 -1.31459 -11.8157 -24.7824 0.06 
4110 270 14 -1.30768 -15.2034 -18.8127 -0.72 
15 1 7 -1.30759 -8.6012 -22.6776 0.13 
18 1 10 -1.49822 -10.3854 -20.7614 0.06 
820 33 11 -3.27819 -15.9647 -24.4892 -0.18 
825 33 10 -3.59299 -15.3215 -23.6645 0.06 
8 1 4 -0.473251 -8.88411 -22.0704 -0.17 
1286 52 7 -0.476859 -14.8594 -22.0237 0.13 
1281 52 4 0.141728 -15.499 -22.6446 -0.17 
2719 109 10 -3.33338 -13.6929 -18.4002 0.06 
2716 109 7 -4.72729 -11.0081 -18.1295 0.13 
1930 78 3 -3.75923 -8.43099 -18.439 -0.13 
2715 109 7 -5.58132 -12.5039 -17.6424 0.13 
2708 109 4 -4.62413 -11.9598 -17.6735 -0.17 
1934 78 6 -2.40917 -9.65749 -17.2593 0.21 
1929 78 3 -2.93743 -8.72876 -17.4446 -0.13 
348 14 10 8.05391 -15.8206 -24.1218 0.06 
24 1 10 0.81143 -12.6517 -20.9935 0.06 
22 1 10 1.53754 -10.2615 -20.6435 0.06 
2750 110 10 1.3589 -9.8206 -24.6184 0.06 
1276 52 1 1.28827 -14.9442 -23.3669 0.15 
1285 52 6 2.39305 -14.2687 -21.7047 0.21 
1280 52 3 2.35519 -14.3553 -22.7391 -0.13 
1277 52 2 1.54624 -14.8433 -24.6536 -0.11 
1278 52 1 2.81945 -14.401 -24.8884 0.15 
1279 52 3 3.26237 -14.0121 -23.6443 -0.13 
1284 52 6 4.26314 -13.5039 -23.5355 0.21 
2749 110 10 1.16302 -11.2828 -23.9848 0.06 
2745 110 11 1.39456 -10.8518 -24.9429 -0.18 
4141 281 12 5.66517 -14.6775 -21.2954 -0.72 
2761 111 7 4.07613 -10.7837 -20.7665 0.13 
21 1 10 0.402636 -9.91193 -19.3836 0.06 
4142 281 13 5.23902 -15.0793 -19.7414 0.44 
3880 194 12 5.09369 -10.2113 -23.0837 -0.72 
3881 194 13 4.92372 -8.8208 -22.1938 0.44 
2763 111 7 3.71428 -9.83473 -19.2433 0.13 
20 1 11 0.549174 -11.9852 -20.0727 -0.18 
23 1 10 1.21554 -12.13 -19.2244 0.06 
3882 194 14 4.75544 -7.82635 -21.5823 -0.72 
17 1 9 0.574016 -10.4664 -20.3166 -0.12 
2756 111 4 4.2835 -10.6246 -19.6785 -0.17 
2755 111 3 6.85752 -10.8225 -19.8881 -0.13 
2760 111 6 6.98354 -11.5368 -20.6947 0.21 
2751 111 1 5.70228 -10.199 -19.4105 0.15 
4143 281 14 4.8491 -15.4712 -18.7051 -0.72 
349 14 10 6.62121 -15.0613 -23.9599 0.06 
345 14 11 7.05412 -15.8456 -24.6101 -0.18 
144 6 10 7.45862 -11.3638 -24.8414 0.06 
16 1 7 0.318636 -8.98669 -22.7282 0.13 
2762 111 7 3.92287 -11.4881 -19.2414 0.13 
2752 111 2 6.07676 -9.196 -18.5587 -0.11 
2754 111 3 7.81077 -10.3551 -19.0768 -0.13 
1205 49 3 1.8541 -15.7144 -17.3114 -0.13 
1210 49 6 2.56494 -15.3024 -18.1074 0.21 
3808 170 12 2.74363 -9.66237 -16.8488 -0.72 
2757 111 5 5.3213 -8.51545 -18.2209 0.21 
2753 111 1 7.33046 -9.35436 -18.2173 0.15 
418 17 10 7.01737 -15.4785 -16.847 0.06 
2758 111 4 8.01056 -8.70861 -17.1532 -0.17 
1211 49 7 0.304239 -13.2188 -17.4735 0.13 
1206 49 4 1.16505 -13.3426 -16.7815 -0.17 
1213 49 7 2.02263 -13.0293 -17.442 0.13 
141 6 7 9.87746 -9.57852 -25.0251 0.13 
148 6 10 11.1222 -12.4728 -24.1945 0.06 